<?xml version="1.0"?>
<VTKFile type="UnstructuredGrid"  version="0.1"  >
<UnstructuredGrid>
<Piece  NumberOfPoints="1438" NumberOfCells="2738">
<Points>
<DataArray  type="Float64"  NumberOfComponents="3"  format="ascii">0 0 0  1 0 0  1 1 0  0 1 0  0.02941176470588239 0 0  0.05882352941176477 0 0  0.08823529411764718 0 0  0.1176470588235296 0 0  0.147058823529412 0 0  0.1764705882352943 0 0  0.2058823529411767 0 0  0.235294117647059 0 0  0.2647058823529415 0 0  0.2941176470588239 0 0  0.3235294117647065 0 0  0.3529411764705889 0 0  0.3823529411764713 0 0  0.4117647058823538 0 0  0.4411764705882362 0 0  0.4705882352941187 0 0  0.5000000000000011 0 0  0.5294117647058832 0 0  0.5588235294117656 0 0  0.5882352941176479 0 0  0.6176470588235301 0 0  0.6470588235294124 0 0  0.6764705882352946 0 0  0.7058823529411768 0 0  0.7352941176470592 0 0  0.7647058823529413 0 0  0.7941176470588236 0 0  0.823529411764706 0 0  0.8529411764705882 0 0  0.8823529411764703 0 0  0.9117647058823527 0 0  0.9411764705882349 0 0  0.9705882352941173 0 0  1 0.02941176470588239 0  1 0.05882352941176477 0  1 0.08823529411764718 0  1 0.1176470588235296 0  1 0.147058823529412 0  1 0.1764705882352943 0  1 0.2058823529411767 0  1 0.235294117647059 0  1 0.2647058823529415 0  1 0.2941176470588239 0  1 0.3235294117647065 0  1 0.3529411764705889 0  1 0.3823529411764713 0  1 0.4117647058823538 0  1 0.4411764705882362 0  1 0.4705882352941187 0  1 0.5000000000000011 0  1 0.5294117647058832 0  1 0.5588235294117656 0  1 0.5882352941176479 0  1 0.6176470588235301 0  1 0.6470588235294124 0  1 0.6764705882352946 0  1 0.7058823529411768 0  1 0.7352941176470592 0  1 0.7647058823529413 0  1 0.7941176470588236 0  1 0.823529411764706 0  1 0.8529411764705882 0  1 0.8823529411764703 0  1 0.9117647058823527 0  1 0.9411764705882349 0  1 0.9705882352941173 0  0.9705882352941176 1 0  0.9411764705882353 1 0  0.9117647058823528 1 0  0.8823529411764705 1 0  0.8529411764705881 1 0  0.8235294117647057 1 0  0.7941176470588234 1 0  0.7647058823529409 1 0  0.7352941176470585 1 0  0.7058823529411761 1 0  0.6764705882352935 1 0  0.6470588235294111 1 0  0.6176470588235287 1 0  0.5882352941176462 1 0  0.5588235294117638 1 0  0.5294117647058814 1 0  0.4999999999999989 1 0  0.4705882352941168 1 0  0.4411764705882344 1 0  0.4117647058823521 1 0  0.3823529411764699 1 0  0.3529411764705876 1 0  0.3235294117647054 1 0  0.2941176470588232 1 0  0.2647058823529408 1 0  0.2352941176470587 1 0  0.2058823529411764 1 0  0.176470588235294 1 0  0.1470588235294118 1 0  0.1176470588235297 1 0  0.0882352941176473 1 0  0.05882352941176505 1 0  0.02941176470588269 1 0  0 0.9705882352941176 0  0 0.9411764705882353 0  0 0.9117647058823528 0  0 0.8823529411764705 0  0 0.8529411764705881 0  0 0.8235294117647057 0  0 0.7941176470588234 0  0 0.7647058823529409 0  0 0.7352941176470585 0  0 0.7058823529411761 0  0 0.6764705882352935 0  0 0.6470588235294111 0  0 0.6176470588235287 0  0 0.5882352941176462 0  0 0.5588235294117638 0  0 0.5294117647058814 0  0 0.4999999999999989 0  0 0.4705882352941168 0  0 0.4411764705882344 0  0 0.4117647058823521 0  0 0.3823529411764699 0  0 0.3529411764705876 0  0 0.3235294117647054 0  0 0.2941176470588232 0  0 0.2647058823529408 0  0 0.2352941176470587 0  0 0.2058823529411764 0  0 0.176470588235294 0  0 0.1470588235294118 0  0 0.1176470588235297 0  0 0.0882352941176473 0  0 0.05882352941176505 0  0 0.02941176470588269 0  0.9767753936704447 0.4847694309251052 0  0.02547133540542468 0.51470588235294 0  0.4852941176470599 0.02547133540542462 0  0.5147058823529406 0.9745286645945749 0  0.6320244277983564 0.02535718087788041 0  0.9735593900314334 0.6351541889577268 0  0.3676470588235302 0.9745286645945749 0  0.02646677568111672 0.3699423467826234 0  0.6617647058823524 0.9745286645945753 0  0.02580256547228343 0.6612681896808459 0  0.3374840935263592 0.02281915518018562 0  0.9745286645945752 0.3382352941176476 0  0.971955024657535 0.7476360508090855 0  0.2500000000000001 0.9745286645945752 0  0.7492487994087113 0.02281915518018551 0  0.02547133540542446 0.2499999999999997 0  0.7794117647058807 0.9745286645945754 0  0.02547133540542468 0.7794117647058821 0  0.2202597219160032 0.02535718087788014 0  0.9745286645945753 0.2205882352941179 0  0.8379140399696605 0.02533703328622028 0  0.0265110447180501 0.1647383250003179 0  0.9723449291283657 0.8422442181499545 0  0.161764705882353 0.9745286645945754 0  0.9735060449273621 0.1329363973005585 0  0.1316017405851823 0.02281915518018574 0  0.8676470588235279 0.9745286645945757 0  0.02624581702491058 0.8658908034494001 0  0.5735294117647051 0.9745286645945753 0  0.9745286645945752 0.426470588235295 0  0.02652953358394805 0.5737911467563012 0  0.4261420748571804 0.02535718087788058 0  0.4558823529411768 0.9745286645945751 0  0.9716462862086257 0.5429951076965387 0  0.02547133540542451 0.4558823529411756 0  0.5433664464675353 0.02281915518018551 0  0.7205882352941169 0.9745286645945751 0  0.02347012269111159 0.7224345217509958 0  0.9720235848257913 0.282873056140894 0  0.2794117647058827 0.02547133540542473 0  0.8970588235294116 0.02547133540542451 0  0.02643795279240535 0.1010064610690729 0  0.6911764705882357 0.02547133540542457 0  0.02486857861088237 0.3077295513543705 0  0.9738663817435835 0.8973294705593116 0  0.9732401259848015 0.6923240220606581 0  0.3088235294117645 0.9745286645945752 0  0.1029411764705885 0.9745286645945754 0  0.9262302053643284 0.9746674497098351 0  0.02636165073398355 0.929021342785487 0  0.07360254858160709 0.02459917875194972 0  0.9724196354520412 0.07777387283876314 0  0.04424227556708504 0.9750949398512989 0  0.02841373480443327 0.04397957053198792 0  0.9733618456635047 0.9531815994394882 0  0.955882352941176 0.02547133540542462 0  0.6911764705882344 0.974528664594575 0  0.6764705882352929 0.9490573291891504 0  0.6470588235294112 0.9490573291891506 0  0.6617647058823521 0.9235859937837261 0  0.6323529411764702 0.9235859937837259 0  0.6470588235294115 0.8981146583783013 0  0.6176470588235292 0.8981146583783013 0  0.6323529411764706 0.8726433229728767 0  0.6029411764705882 0.8726433229728765 0  0.6176470588235295 0.8471719875674522 0  0.5882352941176473 0.8471719875674519 0  0.6029411764705886 0.8217006521620275 0  0.5735294117647064 0.8217006521620273 0  0.5882352941176477 0.7962293167566028 0  0.5588235294117655 0.7962293167566026 0  0.5735294117647068 0.7707579813511781 0  0.5441176470588246 0.770757981351178 0  0.5588235294117658 0.7452866459457534 0  0.5294117647058836 0.7452866459457533 0  0.5441176470588248 0.7198153105403288 0  0.5147058823529426 0.7198153105403287 0  0.5294117647058837 0.6943439751349042 0  0.5000000000000014 0.6943439751349042 0  0.5147058823529426 0.6688726397294796 0  0.4852941176470604 0.6688726397294796 0  0.5000000000000016 0.6434013043240551 0  0.4705882352941193 0.6434013043240551 0  0.4852941176470604 0.6179299689186305 0  0.5147058823529427 0.6179299689186305 0  0.5000000000000016 0.5924586335132059 0  0.4705882352941194 0.5924586335132059 0  0.4852941176470605 0.5669872981077814 0  0.5147058823529428 0.5669872981077815 0  0.5000000000000017 0.5415159627023569 0  0.4705882352941195 0.5415159627023568 0  0.4852941176470606 0.5160446272969323 0  0.5147058823529428 0.5160446272969323 0  0.5000000000000018 0.4905732918915078 0  0.529411764705884 0.4905732918915079 0  0.4705882352941197 0.4905732918915078 0  0.5147058823529429 0.4651019564860833 0  0.5441176470588251 0.4651019564860834 0  0.5735294117647071 0.7198153105403289 0  0.5294117647058841 0.4396306210806588 0  0.5588235294117663 0.4396306210806589 0  0.5735294117647074 0.4651019564860834 0  0.5882352941176485 0.4396306210806589 0  0.4558823529411782 0.6688726397294796 0  0.6029411764705896 0.4651019564860834 0  0.5735294117647074 0.4141592856752344 0  0.6029411764705896 0.4141592856752344 0  0.5882352941176485 0.3886879502698097 0  0.6176470588235308 0.3886879502698097 0  0.6323529411764708 0.8217006521620277 0  0.6029411764705896 0.3632166148643852 0  0.6323529411764719 0.3632166148643852 0  0.6176470588235308 0.3377452794589606 0  0.5882352941176486 0.3377452794589605 0  0.647058823529413 0.3377452794589607 0  0.6617647058823541 0.3632166148643852 0  0.6764705882352953 0.3377452794589606 0  0.6911764705882364 0.3632166148643852 0  0.5000000000000016 0.7452866459457533 0  0.6617647058823541 0.312273944053536 0  0.6911764705882364 0.312273944053536 0  0.6764705882352952 0.2868026086481115 0  0.7058823529411774 0.2868026086481114 0  0.6911764705882368 0.261331273242687 0  0.7205882352941189 0.2613312732426869 0  0.7352941176470598 0.2868026086481114 0  0.7500000000000009 0.2613312732426868 0  0.6764705882352928 0.8981146583783015 0  0.6617647058823546 0.2613312732426872 0  0.764705882352942 0.2868026086481115 0  0.7352941176470601 0.2358599378372622 0  0.7647058823529421 0.2358599378372622 0  0.5441176470588241 0.8217006521620268 0  0.7500000000000011 0.2103886024318375 0  0.7794117647058831 0.2103886024318377 0  0.7647058823529423 0.1849172670264133 0  0.7352941176470607 0.1849172670264136 0  0.7941176470588244 0.1849172670264131 0  0.8088235294117655 0.2103886024318376 0  0.8235294117647067 0.184917267026413 0  0.8382352941176479 0.2103886024318375 0  0.7794117647058838 0.1594459316209894 0  0.852941176470589 0.1849172670264131 0  0.5735294117647061 0.8726433229728763 0  0.838235294117648 0.1594459316209884 0  0.4411764705882371 0.6434013043240551 0  0.426470588235296 0.6688726397294796 0  0.4117647058823548 0.6434013043240552 0  0.3970588235294137 0.6688726397294796 0  0.3823529411764726 0.6434013043240552 0  0.3676470588235315 0.6688726397294796 0  0.3529411764705904 0.6434013043240551 0  0.3382352941176493 0.6688726397294796 0  0.3235294117647082 0.6434013043240551 0  0.3088235294117671 0.6688726397294797 0  0.2941176470588259 0.6434013043240552 0  0.3088235294117671 0.6179299689186306 0  0.3235294117647082 0.6943439751349043 0  0.294117647058826 0.6943439751349043 0  0.2794117647058848 0.6179299689186305 0  0.2941176470
[...]
<PointData  Vectors="f_44865"> 
<DataArray  type="Float64"  Name="f_44865"  NumberOfComponents="3" format="ascii">0.0000000000000000e+00 0.0000000000000000e+00 0.0000000000000000e+00  2.9999999999999999e-01 0.0000000000000000e+00 0.0000000000000000e+00  2.9999999999999999e-01 5.9999999999999998e-01 0.0000000000000000e+00  0.0000000000000000e+00 5.9999999999999998e-01 0.0000000000000000e+00  8.8235294117646641e-03 0.0000000000000000e+00 0.0000000000000000e+00  1.7647058823529321e-02 0.0000000000000000e+00 0.0000000000000000e+00  2.6470588235293982e-02 0.0000000000000000e+00 0.0000000000000000e+00  3.5294117647058650e-02 0.0000000000000000e+00 0.0000000000000000e+00  4.4117647058823310e-02 0.0000000000000000e+00 0.0000000000000000e+00  5.2941176470587985e-02 0.0000000000000000e+00 0.0000000000000000e+00  6.1764705882352680e-02 0.0000000000000000e+00 0.0000000000000000e+00  7.0588235294117327e-02 0.0000000000000000e+00 0.0000000000000000e+00  7.9411764705882001e-02 0.0000000000000000e+00 0.0000000000000000e+00  8.8235294117646676e-02 0.0000000000000000e+00 0.0000000000000000e+00  9.7058823529411378e-02 0.0000000000000000e+00 0.0000000000000000e+00  1.0588235294117603e-01 0.0000000000000000e+00 0.0000000000000000e+00  1.1470588235294066e-01 0.0000000000000000e+00 0.0000000000000000e+00  1.2352941176470533e-01 0.0000000000000000e+00 0.0000000000000000e+00  1.3235294117646998e-01 0.0000000000000000e+00 0.0000000000000000e+00  1.4117647058823460e-01 0.0000000000000000e+00 0.0000000000000000e+00  1.4999999999999927e-01 0.0000000000000000e+00 0.0000000000000000e+00  1.5882352941176381e-01 0.0000000000000000e+00 0.0000000000000000e+00  1.6764705882352848e-01 0.0000000000000000e+00 0.0000000000000000e+00  1.7647058823529330e-01 0.0000000000000000e+00 0.0000000000000000e+00  1.8529411764705800e-01 0.0000000000000000e+00 0.0000000000000000e+00  1.9411764705882278e-01 0.0000000000000000e+00 0.0000000000000000e+00  2.0294117647058760e-01 0.0000000000000000e+00 0.0000000000000000e+00  2.1176470588235247e-01 0.0000000000000000e+00 0.0000000000000000e+00  2.2058823529411734e-01 0.0000000000000000e+00 0.0000000000000000e+00  2.2941176470588215e-01 0.0000000000000000e+00 0.0000000000000000e+00  2.3823529411764691e-01 0.0000000000000000e+00 0.0000000000000000e+00  2.4705882352941150e-01 0.0000000000000000e+00 0.0000000000000000e+00  2.5588235294117623e-01 0.0000000000000000e+00 0.0000000000000000e+00  2.6470588235294090e-01 0.0000000000000000e+00 0.0000000000000000e+00  2.7352941176470569e-01 0.0000000000000000e+00 0.0000000000000000e+00  2.8235294117647042e-01 0.0000000000000000e+00 0.0000000000000000e+00  2.9117647058823509e-01 0.0000000000000000e+00 0.0000000000000000e+00  2.9999999999999993e-01 1.7647058823529328e-02 0.0000000000000000e+00  2.9999999999999993e-01 3.5294117647058643e-02 0.0000000000000000e+00  2.9999999999999993e-01 5.2941176470588040e-02 0.0000000000000000e+00  2.9999999999999993e-01 7.0588235294117452e-02 0.0000000000000000e+00  2.9999999999999993e-01 8.8235294117646815e-02 0.0000000000000000e+00  2.9999999999999993e-01 1.0588235294117616e-01 0.0000000000000000e+00  2.9999999999999993e-01 1.2352941176470542e-01 0.0000000000000000e+00  2.9999999999999993e-01 1.4117647058823471e-01 0.0000000000000000e+00  2.9999999999999993e-01 1.5882352941176406e-01 0.0000000000000000e+00  2.9999999999999993e-01 1.7647058823529349e-01 0.0000000000000000e+00  2.9999999999999993e-01 1.9411764705882295e-01 0.0000000000000000e+00  2.9999999999999993e-01 2.1176470588235238e-01 0.0000000000000000e+00  2.9999999999999993e-01 2.2941176470588184e-01 0.0000000000000000e+00  2.9999999999999993e-01 2.4705882352941141e-01 0.0000000000000000e+00  2.9999999999999993e-01 2.6470588235294068e-01 0.0000000000000000e+00  2.9999999999999993e-01 2.8235294117647020e-01 0.0000000000000000e+00  2.9999999999999993e-01 2.9999999999999960e-01 0.0000000000000000e+00  2.9999999999999993e-01 3.1764705882352878e-01 0.0000000000000000e+00  2.9999999999999993e-01 3.3529411764705813e-01 0.0000000000000000e+00  2.9999999999999999e-01 3.5294117647058737e-01 0.0000000000000000e+00  2.9999999999999993e-01 3.7058823529411705e-01 0.0000000000000000e+00  2.9999999999999993e-01 3.8823529411764668e-01 0.0000000000000000e+00  2.9999999999999993e-01 4.0588235294117603e-01 0.0000000000000000e+00  2.9999999999999993e-01 4.2352941176470543e-01 0.0000000000000000e+00  2.9999999999999993e-01 4.4117647058823489e-01 0.0000000000000000e+00  2.9999999999999993e-01 4.5882352941176424e-01 0.0000000000000000e+00  2.9999999999999993e-01 4.7647058823529376e-01 0.0000000000000000e+00  2.9999999999999993e-01 4.9411764705882305e-01 0.0000000000000000e+00  2.9999999999999993e-01 5.1176470588235223e-01 0.0000000000000000e+00  2.9999999999999993e-01 5.2941176470588114e-01 0.0000000000000000e+00  2.9999999999999993e-01 5.4705882352941060e-01 0.0000000000000000e+00  2.9999999999999993e-01 5.6470588235294017e-01 0.0000000000000000e+00  2.9999999999999993e-01 5.8235294117647007e-01 0.0000000000000000e+00  2.9117647058823531e-01 5.9999999999999987e-01 0.0000000000000000e+00  2.8235294117647070e-01 5.9999999999999987e-01 0.0000000000000000e+00  2.7352941176470585e-01 5.9999999999999987e-01 0.0000000000000000e+00  2.6470588235294124e-01 5.9999999999999987e-01 0.0000000000000000e+00  2.5588235294117656e-01 5.9999999999999987e-01 0.0000000000000000e+00  2.4705882352941172e-01 5.9999999999999987e-01 0.0000000000000000e+00  2.3823529411764688e-01 5.9999999999999987e-01 0.0000000000000000e+00  2.2941176470588209e-01 5.9999999999999987e-01 0.0000000000000000e+00  2.2058823529411736e-01 5.9999999999999987e-01 0.0000000000000000e+00  2.1176470588235269e-01 5.9999999999999987e-01 0.0000000000000000e+00  2.0294117647058796e-01 5.9999999999999987e-01 0.0000000000000000e+00  1.9411764705882328e-01 5.9999999999999987e-01 0.0000000000000000e+00  1.8529411764705866e-01 5.9999999999999987e-01 0.0000000000000000e+00  1.7647058823529391e-01 5.9999999999999987e-01 0.0000000000000000e+00  1.6764705882352929e-01 5.9999999999999987e-01 0.0000000000000000e+00  1.5882352941176461e-01 5.9999999999999987e-01 0.0000000000000000e+00  1.5000000000000011e-01 5.9999999999999987e-01 0.0000000000000000e+00  1.4117647058823560e-01 5.9999999999999987e-01 0.0000000000000000e+00  1.3235294117647098e-01 5.9999999999999987e-01 0.0000000000000000e+00  1.2352941176470644e-01 5.9999999999999987e-01 0.0000000000000000e+00  1.1470588235294177e-01 5.9999999999999987e-01 0.0000000000000000e+00  1.0588235294117704e-01 5.9999999999999987e-01 0.0000000000000000e+00  9.7058823529412197e-02 5.9999999999999987e-01 0.0000000000000000e+00  8.8235294117647481e-02 5.9999999999999987e-01 0.0000000000000000e+00  7.9411764705882903e-02 5.9999999999999987e-01 0.0000000000000000e+00  7.0588235294118271e-02 5.9999999999999987e-01 0.0000000000000000e+00  6.1764705882353589e-02 5.9999999999999987e-01 0.0000000000000000e+00  5.2941176470588887e-02 5.9999999999999987e-01 0.0000000000000000e+00  4.4117647058823893e-02 5.9999999999999987e-01 0.0000000000000000e+00  3.5294117647059052e-02 5.9999999999999987e-01 0.0000000000000000e+00  2.6470588235294374e-02 5.9999999999999987e-01 0.0000000000000000e+00  1.7647058823529543e-02 5.9999999999999987e-01 0.0000000000000000e+00  8.8235294117647422e-03 5.9999999999999987e-01 0.0000000000000000e+00  0.0000000000000000e+00 5.8235294117647052e-01 0.0000000000000000e+00  0.0000000000000000e+00 5.6470588235294117e-01 0.0000000000000000e+00  0.0000000000000000e+00 5.4705882352941215e-01 0.0000000000000000e+00  0.0000000000000000e+00 5.2941176470588314e-01 0.0000000000000000e+00  0.0000000000000000e+00 5.1176470588235390e-01 0.0000000000000000e+00  0.0000000000000000e+00 4.9411764705882477e-01 0.0000000000000000e+00  0.0000000000000000e+00 4.7647058823529537e-01 0.0000000000000000e+00  0.0000000000000000e+00 4.5882352941176585e-01 0.0000000000000000e+00  0.0000000000000000e+00 4.4117647058823628e-01 0.0000000000000000e+00  0.0000000000000000e+00 4.2352941176470671e-01 0.0000000000000000e+00  0.0000000000000000e+00 4.0588235294117697e-01 0.0000000000000000e+00  0.0000000000000000e+00 3.8823529411764729e-01 0.0000000000000000e+00  0.0000000000000000e+00 3.7058823529411761e-01 0.0000000000000000e+00  0.0000000000000000e+00 3.5294117647058793e-01 0.0000000000000000e+00  0.0000000000000000e+00 3.3529411764705835e-01 0.0000000000000000e+00  0.0000000000000000e+00 3.1764705882352878e-01 0.0000000000000000e+00  0.0000000000000000e+00 2.9999999999999932e-01 0.0000000000000000e+00  0.0000000000000000e+00 2.8235294117646997e-01 0.0000000000000000e+00  0.0000000000000000e+00 2.6470588235294046e-01 0.0000000000000000e+00  0.0000000000000000e+00 2.4705882352941103e-01 0.0000000000000000e+00  0.0000000000000000e+00 2.2941176470588170e-01 0.0000000000000000e+00  0.0000000000000000e+00 2.1176470588235238e-01 0.0000000000000000e+00  0.0000000000000000e+00 1.9411764705882317e-01 0.0000000000000000e+00  0.0000000000000000e+00 1.7647058823529374e-01 0.0000000000000000e+00  0.0000000000000000e+00 1.5882352941176436e-01 0.0000000000000000e+00  0.0000000000000000e+00 1.4117647058823504e-01 0.0000000000000000e+00  0.0000000000000000e+00 1.2352941176470572e-01 0.0000000000000000e+00  0.0000000000000000e+00 1.0588235294117630e-01 0.0000000000000000e+00  0.0000000000000000e+00 8.8235294117646981e-02 0.0000000000000000e+00  0.0000000000000000e+00 7.0588235294117757e-02 0.0000000000000000e+00  0.0000000000000000e+00 5.2941176470588346e-02 0.0000000000000000e+00  0.0000000000000000e+00 3.5294117647059003e-02 0.0000000000000000e+00  0.0000000000000000e+00 1.7647058823529602e-02 0.0000000000000000e+00  2.9303261810113346e-01 2.9086165855506213e-01 0.0000000000000000e+00  7.6414006216273620e-03 3.0882352941176405e-01 0.0000000000000000e+00  1.4558823529411694e-01 1.5282801243254733e-02 0.0000000000000000e+00  1.5441176470588239e-01 5.8471719875674455e-01 0.0000000000000000e+00  1.8960732833950603e-01 1.5214308526728133e-02 0.0000000000000000e+00  2.9206781700943019e-01 3.8109251337463512e-01 0.0000000000000000e+00  1.1029411764705975e-01 5.8471719875674522e-01 0.0000000000000000e+00  7.9400327043349997e-03 2.2196540806957374e-01 0.0000000000000000e+00  1.9852941176470570e-01 5.8471719875674488e-01 0.0000000000000000e+00  7.7407696416849654e-03 3.9676091380850820e-01 0.0000000000000000e+00  1.0124522805790716e-01 1.3691493108111345e-02 0.0000000000000000e+00  2.9235859937837244e-01 2.0294117647058765e-01 0.0000000000000000e+00  2.9158650739726055e-01 4.4858163048545074e-01 0.0000000000000000e+00  7.5000000000000649e-02 5.8471719875674533e-01 0.0000000000000000e+00  2.2477463982261300e-01 1.3691493108111205e-02 0.0000000000000000e+00  7.6414006216272805e-03 1.4999999999999961e-01 0.0000000000000000e+00  2.3382352941176396e-01 5.8471719875674522e-01 0.0000000000000000e+00  7.6414006216274019e-03 4.6764705882353075e-01 0.0000000000000000e+00  6.6077916574800596e-02 1.5214308526728039e-02 0.0000000000000000e+00  2.9235859937837239e-01 1.3235294117647009e-01 0.0000000000000000e+00  2.5137421199089788e-01 1.5202219971732064e-02 0.0000000000000000e+00  7.9533134154149854e-03 9.8842995000190628e-02 0.0000000000000000e+00  2.9170347873850971e-01 5.0534653088997217e-01 0.0000000000000000e+00  4.8529411764706432e-02 5.8471719875674588e-01 0.0000000000000000e+00  2.9205181347820869e-01 7.9761838380334710e-02 0.0000000000000000e+00  3.9480522175554429e-02 1.3691493108111420e-02 0.0000000000000000e+00  2.6029411764705845e-01 5.8471719875674499e-01 0.0000000000000000e+00  7.8737451074732314e-03 5.1953448206964103e-01 0.0000000000000000e+00  1.7205882352941157e-01 5.8471719875674488e-01 0.0000000000000000e+00  2.9235859937837244e-01 2.5588235294117589e-01 0.0000000000000000e+00  7.9588600751843153e-03 3.4427468805378086e-01 0.0000000000000000e+00  1.2784262245715325e-01 1.5214308526728315e-02 0.0000000000000000e+00  1.3676470588235368e-01 5.8471719875674477e-01 0.0000000000000000e+00  2.9149388586258768e-01 3.2579706461792213e-01 0.0000000000000000e+00  7.6414006216273169e-03 2.7352941176470508e-01 0.0000000000000000e+00  1.6300993394025942e-01 1.3691493108111250e-02 0.0000000000000000e+00  2.1617647058823483e-01 5.8471719875674499e-01 0.0000000000000000e+00  7.0410368073334497e-03 4.3346071305059847e-01 0.0000000000000000e+00  2.9160707544773745e-01 1.6972383368453547e-01 0.0000000000000000e+00  8.3823529411764339e-02 1.5282801243254816e-02 0.0000000000000000e+00  2.6911764705882335e-01 1.5282801243254627e-02 0.0000000000000000e+00  7.9313858377215544e-03 6.0603876641443635e-02 0.0000000000000000e+00  2.0735294117647005e-01 1.5282801243254616e-02 0.0000000000000000e+00  7.4605735832646587e-03 1.8463773081262208e-01 0.0000000000000000e+00  2.9215991452307505e-01 5.3839768233558605e-01 0.0000000000000000e+00  2.9197203779544029e-01 4.1539441323639420e-01 0.0000000000000000e+00  9.2647058823529888e-02 5.8471719875674544e-01 0.0000000000000000e+00  3.0882352941176736e-02 5.8471719875674533e-01 0.0000000000000000e+00  2.7786906160929858e-01 5.8480046982590095e-01 0.0000000000000000e+00  7.9084952201951744e-03 5.5741280567129248e-01 0.0000000000000000e+00  2.2080764574481979e-02 1.4759507251169823e-02 0.0000000000000000e+00  2.9172589063561249e-01 4.6664323703257626e-02 0.0000000000000000e+00  1.3272682670125519e-02 5.8505696391077955e-01 0.0000000000000000e+00  8.5241204413299253e-03 2.6387742319192733e-02 0.0000000000000000e+00  2.9200855369905143e-01 5.7190895966369237e-01 0.0000000000000000e+00  2.8676470588235264e-01 1.5282801243254707e-02 0.0000000000000000e+00  2.0735294117647016e-01 5.8471719875674466e-01 0.0000000000000000e+00  2.0294117647058782e-01 5.6943439751348945e-01 0.0000000000000000e+00  1.9411764705882326e-01 5.6943439751349001e-01 0.0000000000000000e+00  1.9852941176470537e-01 5.5415159627023491e-01 0.0000000000000000e+00  1.8970588235294086e-01 5.5415159627023447e-01 0.0000000000000000e+00  1.9411764705882323e-01 5.3886879502697993e-01 0.0000000000000000e+00  1.8529411764705866e-01 5.3886879502697971e-01 0.0000000000000000e+00  1.8970588235294100e-01 5.2358599378372495e-01 0.0000000000000000e+00  1.8088235294117636e-01 5.2358599378372495e-01 0.0000000000000000e+00  1.8529411764705872e-01 5.0830319254047029e-01 0.0000000000000000e+00  1.7647058823529413e-01 5.0830319254047052e-01 0.0000000000000000e+00  1.8088235294117641e-01 4.9302039129721542e-01 0.0000000000000000e+00  1.7205882352941190e-01 4.9302039129721537e-01 0.0000000000000000e+00  1.7647058823529413e-01 4.7773759005396060e-01 0.0000000000000000e+00  1.6764705882352945e-01 4.7773759005396060e-01 0.0000000000000000e+00  1.7205882352941171e-01 4.6245478881070595e-01 0.0000000000000000e+00  1.6323529411764709e-01 4.6245478881070579e-01 0.0000000000000000e+00  1.6764705882352932e-01 4.4717198756745102e-01 0.0000000000000000e+00  1.5882352941176470e-01 4.4717198756745102e-01 0.0000000000000000e+00  1.6323529411764695e-01 4.3188918632419598e-01 0.0000000000000000e+00  1.5441176470588222e-01 4.3188918632419632e-01 0.0000000000000000e+00  1.5882352941176450e-01 4.1660638508094144e-01 0.0000000000000000e+00  1.4999999999999986e-01 4.1660638508094144e-01 0.0000000000000000e+00  1.5441176470588211e-01 4.0132358383768668e-01 0.0000000000000000e+00  1.4558823529411730e-01 4.0132358383768707e-01 0.0000000000000000e+00  1.4999999999999949e-01 3.8604078259443214e-01 0.0000000000000000e+00  1.4117647058823479e-01 3.8604078259443253e-01 0.0000000000000000e+00  1.4558823529411713e-01 3.7075798135117755e-01 0.0000000000000000e+00  1.5441176470588183e-01 3.7075798135117727e-01 0.0000000000000000e+00  1.4999999999999952e-01 3.5547518010792273e-01 0.0000000000000000e+00  1.4117647058823485e-01 3.5547518010792301e-01 0.0000000000000000e+00  1.4558823529411713e-01 3.4019237886466802e-01 0.0000000000000000e+00  1.5441176470588178e-01 3.4019237886466774e-01 0.0000000000000000e+00  1.4999999999999944e-01 3.2490957762141309e-01 0.0000000000000000e+00  1.4117647058823479e-01 3.2490957762141331e-01 0.0000000000000000e+00  1.4558823529411719e-01 3.0962677637815855e-01 0.0000000000000000e+00  1.5441176470588180e-01 3.0962677637815827e-01 0.0000000000000000e+00  1.4999999999999958e-01 2.9434397513490368e-01 0.0000000000000000e+00  1.5882352941176420e-01 2.9434397513490357e-01 0.0000000000000000e+00  1.4117647058823490e-01 2.9434397513490401e-01 0.0000000000000000e+00  1.5441176470588189e-01 2.7906117389164875e-01 0.0000000000000000e+00  1.6323529411764659e-01 2.7906117389164853e-01 0.0000000000000000e+00  1.7205882352941160e-01 4.3188918632419604e-01 0.0000000000000000e+00  1.5882352941176436e-01 2.6377837264839404e-01 0.0000000000000000e+00  1.6764705882352890e-01 2.6377837264839377e-01 0.0000000000000000e+00  1.7205882352941124e-01 2.7906117389164842e-01 0.0000000000000000e+00  1.7647058823529368e-01 2.6377837264839377e-01 0.0000000000000000e+00  1.3676470588235262e-01 4.0132358383768751e-01 0.0000000000000000e+00  1.8088235294117597e-01 2.7906117389164820e-01 0.0000000000000000e+00  1.7205882352941146e-01 2.4849557140513909e-01 0.0000000000000000e+00  1.8088235294117619e-01 2.4849557140513906e-01 0.0000000000000000e+00  1.7647058823529399e-01 2.3321277016188444e-01 0.0000000000000000e+00  1.8529411764705864e-01 2.3321277016188427e-01 0.0000000000000000e+00  1.8970588235294103e-01 4.9302039129721548e-01 0.0000000000000000e+00  1.8088235294117622e-01 2.1792996891862970e-01 0.0000000000000000e+00  1.8970588235294106e-01 2.1792996891862967e-01 0.0000000000000000e+00  1.8529411764705872e-01 2.0264716767537511e-01 0.0000000000000000e+00  1.7647058823529391e-01 2.0264716767537519e-01 0.0000000000000000e+00  1.9411764705882345e-01 2.0264716767537513e-01 0.0000000000000000e+00  1.9852941176470582e-01 2.1792996891862981e-01 0.0000000000000000e+00  2.0294117647058815e-01 2.0264716767537519e-01 0.0000000000000000e+00  2.0735294117647060e-01 2.1792996891862990e-01 0.0000000000000000e+00  1.5000000000000011e-01 4.4717198756745130e-01 0.0000000000000000e+00  1.9852941176470584e-01 1.8736436643212045e-01 0.0000000000000000e+00  2.0735294117647052e-01 1.8736436643212048e-01 0.0000000000000000e+00  2.0294117647058810e-01 1.7208156518886578e-01 0.0000000000000000e+00  2.1176470588235285e-01 1.7208156518886580e-01 0.0000000000000000e+00  2.0735294117647052e-01 1.5679876394561115e-01 0.0000000000000000e+00  2.1617647058823516e-01 1.5679876394561104e-01 0.0000000000000000e+00  2.2058823529411778e-01 1.7208156518886572e-01 0.0000000000000000e+00  2.2499999999999978e-01 1.5679876394561101e-01 0.0000000000000000e+00  2.0294117647058760e-01 5.3886879502697993e-01 0.0000000000000000e+00  1.9852941176470582e-01 1.5679876394561129e-01 0.0000000000000000e+00  2.2941176470588240e-01 1.7208156518886586e-01 0.0000000000000000e+00  2.2058823529411750e-01 1.4151596270235625e-01 0.0000000000000000e+00  2.2941176470588215e-01 1.4151596270235642e-01 0.0000000000000000e+00  1.6323529411764737e-01 4.9302039129721514e-01 0.0000000000000000e+00  2.2499999999999995e-01 1.2623316145910149e-01 0.0000000000000000e+00  2.3382352941176451e-01 1.2623316145910171e-01 0.0000000000000000e+00  2.2941176470588229e-01 1.1095036021584709e-01 0.0000000000000000e+00  2.2058823529411759e-01 1.1095036021584735e-01 0.0000000000000000e+00  2.3823529411764696e-01 1.1095036021584707e-01 0.0000000000000000e+00  2.4264705882352938e-01 1.2623316145910179e-01 0.0000000000000000e+00  2.4705882352941172e-01 1.1095036021584712e-01 0.0000000000000000e+00  2.5147058823529428e-01 1.2623316145910179e-01 0.0000000000000000e+00  2.3382352941176476e-01 9.5667558972592950e-02 0.0000000000000000e+00  2.5588235294117639e-01 1.1095036021584720e-01 0.0000000000000000e+00  1.7205882352941179e-01 5.2358599378372506e-01 0.0000000000000000e+00  2.5147058823529406e-01 9.5667558972592395e-02 0.0000000000000000e+00  1.3235294117647026e-01 3.8604078259443281e-01 0.0000000000000000e+00  1.2794117647058811e-01 4.0132358383768790e-01 0.0000000000000000e+00  1.2352941176470568e-01 3.8604078259443342e-01 0.0000000000000000e+00  1.1911